 Gaussian 03, Revision E.01,
 Gaussian 03:  EM64L-G03RevE.01 11-Sep-2007

 --------------------------------
 # HF/6-31(d,p) # POP=(MK,Dipole)
 --------------------------------

 ---------------------
 Molden generated mol2
 ---------------------
 Symbolic Z-matrix:
 Charge = -1 Multiplicity = 1

                         Standard orientation:
 ---------------------------------------------------------------------
 Center     Atomic     Atomic              Coordinates (Angstroms)
 Number     Number      Type              X           Y           Z
 ---------------------------------------------------------------------
    1          6             0        3.297321   -1.093264   -1.306472
    2          6             0        2.112933   -1.011164   -0.580074
    3          6             0        2.151188   -0.607927    0.751992
    4          6             0        3.355594   -0.274281    1.351271
    5          6             0        4.522716   -0.349163    0.601849
    6          6             0        4.509305   -0.757921   -0.725108
    7          6             0        0.805275   -1.449068   -1.243214
    8          8             0        0.796121   -2.311083   -2.108415
    9         17             0        6.079598    0.084992    1.362644
   10          7             0       -0.397341   -0.829221   -0.754259
   11          6             0       -0.629977    0.558451   -0.593823
   12          6             0       -1.990284    0.714783   -0.268903
   13          6             0       -2.606821   -0.613843   -0.249706
   14          6             0       -1.650095   -1.506410   -0.563376
   15          6             0       -2.492499    1.996025   -0.056438
   16          6             0       -1.652194    3.094756   -0.181054
   17          6             0       -0.304712    2.920230   -0.529151
   18          6             0        0.209285    1.655369   -0.739539
   19          6             0       -4.068200   -0.921912    0.047117
   20          6             0       -4.308358   -2.054947    1.192598
   21          8             0       -3.960238   -3.246552    0.866772
   22          6             0       -1.792161   -3.010799   -0.631798
   23          8             0       -2.274685    4.339249    0.049307
   24          6             0       -1.399719    5.467791   -0.019757
   25          8             0       -4.832047   -1.645390    2.249416
   26          1             0       -2.007368    6.345119    0.211380
   27          1             0       -0.583671    5.414028    0.707091
   28          1             0       -0.965986    5.604624   -1.015053
   29          1             0       -1.867278   -3.342904   -1.664376
   30          1             0       -0.925674   -3.492861   -0.189043
   31          1             0       -2.739054   -3.243302   -0.036332
   32          1             0       -4.564318   -0.004052    0.351944
   33          1             0       -4.548159   -1.256623   -0.873424
   34          1             0        0.348652    3.770347   -0.641216
   35          1             0        1.247133    1.540567   -1.017468
   36          1             0       -3.530783    2.155328    0.200697
   37          1             0        5.431977   -0.814183   -1.287448
   38          1             0        3.264235   -1.425909   -2.336959
   39          1             0        1.231909   -0.558941    1.323249
   40          1             0        3.391828    0.038395    2.386694
 ---------------------------------------------------------------------

 SCF Done:  E(RHF) =  -1541.64332970     A.U. after    8 cycles

 The electronic state is 1-A.
 Alpha  occ. eigenvalues -- -104.77463 -20.50555 -20.47793 -20.32002 -20.31712
 Alpha  occ. eigenvalues --  -15.51623 -11.30040 -11.25790 -11.21209 -11.20492
 Alpha  occ. eigenvalues --  -11.19615 -11.19499 -11.19445 -11.19381 -11.19273
 Alpha  occ. eigenvalues --  -11.17603 -11.17323 -11.15778 -11.15324 -11.14512
 Alpha  occ. eigenvalues --  -11.13927 -11.13195 -11.10708 -11.08720 -11.06177
 Alpha  occ. eigenvalues --  -10.50727  -7.97659  -7.97339  -7.97336  -1.31479
 Alpha  occ. eigenvalues --   -1.30280  -1.18593  -1.18253  -1.13238  -1.08882
 Alpha  occ. eigenvalues --   -1.06278  -1.04624  -0.98416  -0.97565  -0.94956
 Alpha  occ. eigenvalues --   -0.92397  -0.90778  -0.85625  -0.83884  -0.80997
 Alpha  occ. eigenvalues --   -0.78971  -0.77869  -0.73336  -0.71612  -0.69178
 Alpha  occ. eigenvalues --   -0.64184  -0.64140  -0.60377  -0.59725  -0.58874
 Alpha  occ. eigenvalues --   -0.57424  -0.56540  -0.56459  -0.54836  -0.54526
 Alpha  occ. eigenvalues --   -0.54438  -0.53227  -0.51494  -0.49706  -0.49506
 Alpha  occ. eigenvalues --   -0.48601  -0.47399  -0.46912  -0.46443  -0.45505
 Alpha  occ. eigenvalues --   -0.44601  -0.44506  -0.42944  -0.42580  -0.42175
 Alpha  occ. eigenvalues --   -0.41014  -0.40601  -0.40196  -0.40098  -0.39318
 Alpha  occ. eigenvalues --   -0.38315  -0.36785  -0.35500  -0.34614  -0.33008
 Alpha  occ. eigenvalues --   -0.29385  -0.28378  -0.27838  -0.22126  -0.21976
 Alpha  occ. eigenvalues --   -0.20432  -0.19799  -0.16754
 Alpha virt. eigenvalues --    0.15370   0.18682   0.22163   0.24104   0.24746
 Alpha virt. eigenvalues --    0.28908   0.31183   0.33153   0.34230   0.34543
 Alpha virt. eigenvalues --    0.34995   0.37264   0.37486   0.37643   0.38658

 Mulliken atomic charges:
              1
     1  C   -0.107237
     2  C   -0.152429
     3  C   -0.103188
     4  C   -0.127858
     5  C   -0.144870
     6  C   -0.128925
     7  C    0.798366
     8  O   -0.552509
     9  Cl  -0.029609
    10  N   -0.924207
    11  C    0.306148
    12  C   -0.068481
    13  C   -0.081503
    14  C    0.332095
    15  C   -0.178975
    16  C    0.379861
    17  C   -0.227096
    18  C   -0.135581
    19  C   -0.288359
    20  C    0.764154
    21  O   -0.776959
    22  C   -0.395502
    23  O   -0.687252
    24  C   -0.016342
    25  O   -0.718084
    26  H    0.120285
    27  H    0.105791
    28  H    0.102410
    29  H    0.099996
    30  H    0.076272
    31  H    0.317324
    32  H    0.110848
    33  H    0.109995
    34  H    0.131880
    35  H    0.152213
    36  H    0.173659
    37  H    0.173301
    38  H    0.192445
    39  H    0.215931
    40  H    0.181991
 Sum of Mulliken charges=  -1.00000

 Dipole moment (field-independent basis, Debye):
    X=    16.6158    Y=    10.7604    Z=    -4.9600  Tot=    20.4076
 Quadrupole moment (field-independent basis, Debye-Ang):
   XX=  -243.3594   YY=  -187.4531   ZZ=  -172.9090
   XY=   -34.2821   XZ=    25.6451   YZ=     8.6521

 Normal termination of Gaussian 03 at Mon Feb  2 15:28:59 2009.
